  BEGIN_INFO
       #
       # this is a Band-XCRYSDEN-Structure-File
       # for Fermi Surface Visualisation
       #
       # Generated by the Wannier90 code http://www.wannier.org
       # On 28Jun2016 at 21:40:42 
       #
       Fermi Energy:   3.47830000000000     
  END_INFO
 
  BEGIN_BLOCK_BANDGRID_3D
 from_wannier_code
  BEGIN_BANDGRID_3D_fermi
          16
          51          51          51
 0.0 0.0 0.0
  0.954934922136205       0.954934922136205      -0.954934922136205     
 -0.954934922136205       0.954934922136205       0.954934922136205     
  0.954934922136205      -0.954934922136205       0.954934922136205     
 BAND:            1
